# vtk DataFile Version 3.0
file is written by INMOST
ASCII
DATASET UNSTRUCTURED_GRID
POINTS 8365 double
0.345045 30.9668 0 
0.890293 31.9694 0 
1.36292 32.5107 0 
1.76802 32.9746 0 
2.17313 33.4386 0 
1.71378 33.8959 0 
1.78539 34.2805 0 
2.05852 34.8202 0 
2.32961 35.2063 0 
2.26925 35.6667 0 
2.21194 36.3575 0 
2.74595 36.5152 0 
3.27894 36.5961 0 
3.68099 36.8296 0 
3.68814 37.3673 0 
3.69733 38.0586 0 
3.70448 38.5963 0 
3.71163 39.134 0 
4.04717 39.3669 0 
3.78528 39.6722 0 
3.18477 39.5139 0 
3.05688 39.897 0 
3.26046 40.2058 0 
3.13359 40.6656 0 
3.33717 40.9744 0 
3.66761 40.8233 0 
3.79753 40.5939 0 
4.19753 40.6738 0 
4.46658 40.9063 0 
4.73767 41.2924 0 
5.06913 41.2181 0 
5.46402 40.9139 0 
5.65738 40.4546 0 
5.85279 40.1489 0 
6.04921 39.92 0 
6.04614 39.6895 0 
6.31213 39.6916 0 
6.64461 39.6941 0 
6.77862 39.772 0 
7.04359 39.6972 0 
7.37403 39.5461 0 
7.63695 39.3177 0 
8.1014 39.2445 0 
8.50037 39.2475 0 
8.9638 39.0975 0 
9.29322 38.8696 0 
9.4876 38.4871 0 
9.62877 39.1026 0 
9.69935 39.4104 0 
9.9684 39.6428 0 
10.173 40.0284 0 
10.5065 40.1078 0 
10.838 40.0335 0 
11.105 40.1124 0 
11.4405 40.3454 0 
11.7096 40.5779 0 
12.1106 40.7346 0 
12.3796 40.967 0 
12.5832 41.2758 0 
12.9167 41.3552 0 
13.3157 41.3583 0 
13.5806 41.2835 0 
13.8476 41.3623 0 
13.7852 41.6691 0 
14.1852 41.749 0 
14.3868 41.9041 0 
14.7213 42.0603 0 
14.9187 41.9082 0 
14.9893 42.216 0 
15.3914 42.4495 0 
15.5929 42.6046 0 
15.9949 42.8381 0 
16.263 42.9938 0 
16.4655 43.2258 0 
16.6036 43.6109 0 
17.0681 43.5376 0 
17.5294 43.2339 0 
17.8609 43.1597 0 
18.1903 42.9318 0 
18.1873 42.7014 0 
18.5852 42.6276 0 
18.8502 42.5528 0 
19.1847 42.709 0 
19.5888 43.0961 0 
19.7934 43.4817 0 
19.6665 43.9416 0 
19.4752 44.5546 0 
19.7443 44.787 0 
19.7473 45.0175 0 
19.6859 45.401 0 
20.0859 45.4809 0 
19.8915 45.8634 0 
19.6296 46.1687 0 
19.2368 46.6265 0 
19.5089 47.0894 0 
19.911 47.3229 0 
20.4439 47.4038 0 
20.7109 47.4826 0 
20.7693 46.8687 0 
21.0383 47.1011 0 
21.3739 47.3341 0 
21.9069 47.415 0 
22.1094 47.647 0 
22.5749 47.6506 0 
23.1723 47.5784 0 
23.3759 47.8871 0 
23.516 48.4258 0 
23.7871 48.812 0 
23.9273 49.3507 0 
23.7984 49.6569 0 
23.603 49.9626 0 
23.9385 50.1956 0 
24.4735 50.4301 0 
25.0106 50.8183 0 
25.2807 51.1276 0 
25.8116 51.0548 0 
25.9385 50.595 0 
26.2014 50.3666 0 
26.5288 49.9851 0 
26.7293 50.0634 0 
26.9922 49.835 0 
27.4557 49.685 0 
27.7851 49.4571 0 
27.9774 48.9209 0 
27.9038 48.3827 0 
28.0306 47.9229 0 
28.0255 47.5388 0 
28.3539 47.2341 0 
28.6158 46.9289 0 
29.0823 47.0093 0 
29.3524 47.3186 0 
29.6838 47.2443 0 
30.1483 47.1711 0 
30.5483 47.251 0 
30.8818 47.3303 0 
31.0066 46.7169 0 
31.068 46.3333 0 
30.9309 46.025 0 
30.9913 45.5647 0 
30.9841 45.027 0 
31.1806 44.7981 0 
31.3749 44.4155 0 
31.3698 44.0315 0 
31.3627 43.4938 0 
31.0241 43.0304 0 
30.754 42.7211 0 
30.7489 42.337 0 
31.0773 42.0323 0 
31.2717 41.6498 0 
31.5295 41.0373 0 
31.7955 41.0394 0 
31.9234 40.6563 0 
31.8497 40.1181 0 
32.1781 39.8134 0 
32.1055 39.352 0 
31.9653 38.8133 0 
31.9623 38.5829 0 
32.2897 38.2014 0 
32.1516 37.8163 0 
31.8805 37.4302 0 
32.0083 37.0471 0 
32.0002 36.4326 0 
32.3951 36.1285 0 
32.791 35.9011 0 
32.7849 35.4402 0 
32.7818 35.2098 0 
32.8401 34.5958 0 
32.966 34.0591 0 
33.1562 33.3693 0 
33.4171 32.9873 0 
33.543 32.4506 0 
33.5358 31.9129 0 
33.7987 31.6845 0 
34.6611 31.5376 0 
34.1936 31.3804 0 
35.0571 31.3102 0 
35.3824 30.7751 0 
35.7763 30.3941 0 
36.1742 30.3203 0 
36.5098 30.5533 0 
37.0417 30.5574 0 
37.4427 30.7141 0 
37.8438 30.8708 0 
38.1057 30.5656 0 
38.0985 30.0279 0 
38.1589 29.5675 0 
38.2868 29.1845 0 
38.6827 28.9571 0 
39.0131 28.806 0 
39.3456 28.8086 0 
39.7425 28.658 0 
40.076 28.7374 0 
40.5436 28.8946 0 
40.6029 28.3574 0 
40.5313 27.9728 0 
40.7236 27.4367 0 
41.053 27.2088 0 
41.6525 27.2902 0 
41.85 27.1381 0 
42.1129 26.9097 0 
42.5109 26.8359 0 
42.652 27.4515 0 
43.186 27.6092 0 
43.5871 27.7659 0 
43.7845 27.6138 0 
44.2551 28.0014 0 
44.5262 28.3875 0 
44.6632 28.6958 0 
44.9282 28.621 0 
45.3282 28.7009 0 
45.7251 28.5503 0 
46.0546 28.3225 0 
46.1845 28.093 0 
46.1773 27.5554 0 
46.0382 27.0935 0 
46.2981 26.6346 0 
46.56 26.3294 0 
46.9538 25.9484 0 
47.2822 25.6437 0 
47.4111 25.3375 0 
47.6055 24.955 0 
47.5309 24.3399 0 
47.7293 24.2647 0 
47.8552 23.728 0 
47.581 23.1114 0 
47.6424 22.7279 0 
48.1713 22.5015 0 
48.5703 22.5046 0 
48.7626 21.9684 0 
48.8895 21.5086 0 
48.6174 21.0457 0 
48.5437 20.5075 0 
48.5366 19.9698 0 
48.9294 19.512 0 
48.8558 18.9738 0 
48.8466 18.2825 0 
48.5714 17.5891 0 
48.3003 17.203 0 
47.8993 17.0463 0 
47.2282 16.5803 0 
46.6881 15.9617 0 
45.8246 16.0319 0 
45.2896 15.7974 0 
44.684 15.2551 0 
44.0692 14.0215 0 
44.6697 14.1797 0 
44.9398 14.489 0 
45.3991 14.0317 0 
45.4544 13.1873 0 
45.0431 12.2625 0 
44.4447 12.2579 0 
44.0426 12.0244 0 
43.5158 12.4043 0 
43.1086 11.7868 0 
42.5071 11.5517 0 
42.0314 10.78 0 
41.8217 10.0104 0 
41.1455 9.16033 0 
41.0667 8.23807 0 
40.5931 7.61999 0 
40.5829 6.85186 0 
40.3108 6.38894 0 
39.8443 6.30855 0 
39.5026 5.61469 0 
39.6949 5.07853 0 
39.4863 4.38568 0 
38.9594 4.76566 0 
38.2228 4.37598 0 
37.6919 4.44871 0 
36.9512 3.75177 0 
36.4919 4.20907 0 
35.8914 4.05085 0 
35.4801 3.12603 0 
35.1436 2.81623 0 
35.6694 2.35944 0 
35.3298 1.8192 0 
35.385 0.974766 0 
35.9794 0.672112 0 
36.5728 0.292644 0 
36.3661 -0.246577 0 
35.8935 -0.787842 0 
35.2971 -0.638813 0 
34.8255 -1.10326 0 
34.2199 -1.64555 0 
34.3386 -2.71991 0 
33.6695 -3.03227 0 
33.0086 -2.73012 0 
32.5483 -2.34963 0 
32.359 -1.58304 0 
32.5718 -0.582939 0 
32.1759 -0.355565 0 
31.8536 0.410009 0 
31.2623 0.943101 0 
31.4055 1.71225 0 
31.4147 2.40357 0 
31.9528 2.86853 0 
32.5604 3.56444 0 
32.1072 4.48262 0 
31.3103 4.5533 0 
30.3875 5.16065 0 
29.5916 5.30815 0 
28.9942 5.38037 0 
28.7353 5.91601 0 
28.0059 6.06402 0 
28.0836 6.90947 0 
27.3593 7.44154 0 
27.3706 8.28648 0 
26.7107 8.66544 0 
25.9762 8.42938 0 
25.5087 8.27218 0 
25.2959 7.27208 0 
25.1507 6.34931 0 
24.5481 6.03746 0 
23.8207 6.3391 0 
23.2233 6.41131 0 
23.3624 6.87321 0 
22.8417 7.71406 0 
22.1829 8.16983 0 
21.6539 8.39619 0 
21.0545 8.31478 0 
20.3946 8.69373 0 
19.8012 9.0732 0 
19.7429 9.68719 0 
19.6897 10.6852 0 
19.437 11.6818 0 
19.0431 12.0628 0 
18.8518 12.6757 0 
19.2579 13.2165 0 
18.6011 13.8259 0 
18.4784 14.593 0 
18.1561 15.3586 0 
17.5658 15.9685 0 
17.2364 16.1964 0 
16.6983 15.7314 0 
16.2318 15.651 0 
16.108 16.3413 0 
15.7162 16.8759 0 
14.9847 16.8703 0 
14.3893 17.0962 0 
14.4016 18.0179 0 
13.8727 18.2443 0 
13.5361 17.9345 0 
12.7341 17.6211 0 
12.1336 17.4628 0 
11.8584 16.7695 0 
11.5147 15.922 0 
11.174 15.3049 0 
10.3096 15.2983 0 
9.51058 15.2154 0 
9.1873 15.9041 0 
8.52233 15.899 0 
7.99547 16.279 0 
7.60058 16.5832 0 
6.8681 16.5007 0 
6.53971 16.8054 0 
6.01489 17.3391 0 
5.54839 17.2587 0 
5.28241 17.2566 0 
4.81898 17.4067 0 
4.35044 17.1727 0 
4.34533 16.7886 0 
3.87884 16.7082 0 
3.47476 16.3211 0 
2.87527 16.2397 0 
2.48038 16.5439 0 
2.02103 17.0012 0 
1.76118 17.46 0 
1.57293 18.3034 0 
1.64657 18.8416 0 
1.65474 19.4561 0 
1.79182 19.7644 0 
1.92992 20.1495 0 
1.80101 20.4557 0 
1.60868 20.9918 0 
1.81225 21.3006 0 
1.94933 21.6089 0 
1.95341 21.9162 0 
2.15392 21.9945 0 
2.02808 22.5312 0 
1.70071 22.9127 0 
1.9053 23.2983 0 
2.36873 23.1482 0 
2.63778 23.3807 0 
2.64493 23.9184 0 
2.3196 24.4535 0 
1.92778 24.9882 0 
2.0669 25.45 0 
1.87558 26.063 0 
1.81317 26.3698 0 
2.14974 26.6796 0 
2.09141 27.2936 0 
1.76302 27.5983 0 
1.50418 28.1339 0 
1.31286 28.7469 0 
1.05505 29.3593 0 
0.932274 30.1264 0 
0.471908 30.5069 0 
8.6654 21.66 0 
0.617669 31.4681 0 
44.3766 14.6383 0 
45.2487 12.7249 0 
41.4836 9.58535 0 
37.3216 4.10024 0 
35.6858 3.58844 0 
34.2792 -2.18273 0 
32.4654 -1.08299 0 
32.3338 4.02353 0 
30.8489 4.85698 0 
25.4023 7.77213 0 
19.5634 11.1835 0 
17.6068 16.3751 0 
14.3131 18.5422 0 
32.6868 33.5417 0 
33.4457 31.5408 0 
13.7822 41.0926 0 
38.3395 28.7777 0 
40.6923 27.0305 0 
31.7196 38.738 0 
19.6726 42.6722 0 
43.7041 14.5609 0 
11.4293 40.0034 0 
42.2652 26.5437 0 
18.6438 42.36 0 
41.7551 11.5136 0 
18.9523 15.273 0 
44.6234 15.9657 0 
47.2795 22.8665 0 
36.0673 4.60189 0 
13.8391 18.7331 0 
14.261 19.058 0 
25.6311 8.77849 0 
15.6459 42.3535 0 
28.2283 46.8531 0 
13.7899 19.258 0 
14.2135 19.5846 0 
13.7416 19.7883 0 
14.1753 20.0948 0 
13.6969 20.2936 0 
14.121 20.5961 0 
13.6518 20.7906 0 
14.0464 21.0898 0 
14.5252 20.906 0 
14.4603 21.3666 0 
14.8989 21.2015 0 
14.8511 21.6598 0 
15.2878 21.4934 0 
15.2183 21.9841 0 
15.6769 21.7933 0 
15.6179 22.2885 0 
16.0723 22.0927 0 
16.0127 22.5869 0 
16.4682 22.3945 0 
16.4029 22.8843 0 
15.9552 23.0738 0 
16.3396 23.3658 0 
16.8591 22.6943 0 
15.899 23.5524 0 
16.2777 23.8398 0 
15.8412 24.0239 0 
16.2023 24.3077 0 
15.8039 24.4947 0 
16.1409 24.7743 0 
15.7367 24.959 0 
16.093 25.2393 0 
15.6898 25.4217 0 
16.0359 25.7005 0 
16.4594 25.5182 0 
16.4001 25.9764 0 
16.8231 25.7972 0 
16.7452 26.2521 0 
17.1776 26.0764 0 
17.0953 26.582 0 
17.5398 26.352 0 
17.485 26.7996 0 
17.8994 26.6148 0 
17.8412 27.0677 0 
18.2654 26.8782 0 
18.1972 27.334 0 
18.6197 27.1461 0 
18.5505 27.6011 0 
18.9593 27.4333 0 
18.8989 27.8722 0 
19.3347 27.6835 0 
19.2534 28.1352 0 
19.6746 27.9525 0 
19.6001 28.3999 0 
19.1953 28.5705 0 
19.5402 28.834 0 
19.1402 29.002 0 
19.4831 29.2637 0 
19.086 29.4299 0 
19.4274 29.6906 0 
19.033 29.8554 0 
20.0044 28.233 0 
19.3573 30.112 0 
20.0907 27.7838 0 
18.9795 30.2792 0 
20.4149 28.0653 0 
15.6121 25.8758 0 
19.2973 30.5357 0 
18.9256 30.6982 0 
19.2574 30.956 0 
18.8762 31.1161 0 
19.2101 31.3689 0 
19.5952 31.2112 0 
20.4789 27.6252 0 
20.823 27.8991 0 
20.8828 27.45 0 
21.2432 27.7262 0 
21.3012 27.2727 0 
18.8253 31.5287 0 
19.5437 31.6247 0 
19.9296 31.4668 0 
21.6658 27.551 0 
21.7153 27.1064 0 
19.8779 31.8813 0 
20.2644 31.7223 0 
20.2119 32.1368 0 
22.1031 27.3782 0 
22.1324 26.8558 0 
20.5988 31.9782 0 
20.5462 32.3931 0 
22.5428 27.1954 0 
22.5839 26.7328 0 
20.9353 32.2316 0 
[...]
POINT_DATA 8365
SCALARS Normal_Vector double 3
LOOKUP_TABLE default
-9.30678 -8.32036 0 
-10.3094 -7.77511 0 
-10.8507 -7.30248 0 
-11.3146 -6.89738 0 
-11.7786 -6.49227 0 
-12.2359 -6.95162 0 
-12.6205 -6.88001 0 
-13.1602 -6.60688 0 
-13.5463 -6.33579 0 
-14.0067 -6.39615 0 
-14.6975 -6.45346 0 
-14.8552 -5.91945 0 
-14.9361 -5.38646 0 
-15.1696 -4.98441 0 
-15.7073 -4.97726 0 
-16.3986 -4.96807 0 
-16.9363 -4.96092 0 
-17.474 -4.95377 0 
-17.7069 -4.61823 0 
-18.0122 -4.88012 0 
-17.8539 -5.48063 0 
-18.237 -5.60852 0 
-18.5458 -5.40494 0 
-19.0056 -5.53181 0 
-19.3144 -5.32823 0 
-19.1633 -4.99779 0 
-18.9339 -4.86787 0 
-19.0138 -4.46787 0 
-19.2463 -4.19882 0 
-19.6324 -3.92773 0 
-19.5581 -3.59627 0 
-19.2539 -3.20138 0 
-18.7946 -3.00802 0 
-18.4889 -2.81261 0 
-18.26 -2.61619 0 
-18.0295 -2.61926 0 
-18.0316 -2.35327 0 
-18.0341 -2.02079 0 
-18.112 -1.88678 0 
-18.0372 -1.62181 0 
-17.8861 -1.29137 0 
-17.6577 -1.02845 0 
-17.5845 -0.564003 0 
-17.5875 -0.165026 0 
-17.4375 0.298404 0 
-17.2096 0.62782 0 
-16.8271 0.822202 0 
-17.4426 0.963366 0 
-17.7504 1.03395 0 
-17.9828 1.303 0 
-18.3684 1.50759 0 
-18.4478 1.84109 0 
-18.3735 2.17255 0 
-18.4524 2.43956 0 
-18.6854 2.7751 0 
-18.9179 3.04415 0 
-19.0746 3.44517 0 
-19.307 3.71422 0 
-19.6158 3.9178 0 
-19.6952 4.2513 0 
-19.6983 4.65028 0 
-19.6235 4.91524 0 
-19.7023 5.18225 0 
-20.0091 5.11983 0 
-20.089 5.51983 0 
-20.2441 5.72136 0 
-20.4003 6.05589 0 
-20.2482 6.25333 0 
-20.556 6.32392 0 
-20.7895 6.72596 0 
-20.9446 6.92749 0 
-21.1781 7.32953 0 
-21.3338 7.59756 0 
-21.5658 7.80011 0 
-21.9509 7.93821 0 
-21.8776 8.40266 0 
-21.5739 8.86405 0 
-21.4997 9.19551 0 
-21.2718 9.52492 0 
-21.0414 9.52186 0 
-20.9676 9.91982 0 
-20.8928 10.1848 0 
-21.049 10.5193 0 
-21.4361 10.9234 0 
-21.8217 11.128 0 
-22.2816 11.0011 0 
-22.8946 10.8098 0 
-23.127 11.0789 0 
-23.3575 11.0819 0 
-23.741 11.0205 0 
-23.8209 11.4205 0 
-24.2034 11.2261 0 
-24.5087 10.9642 0 
-24.9665 10.5714 0 
-25.4294 10.8435 0 
-25.6629 11.2456 0 
-25.7438 11.7785 0 
-25.8226 12.0455 0 
-25.2087 12.1039 0 
-25.4411 12.3729 0 
-25.6741 12.7085 0 
-25.755 13.2415 0 
-25.987 13.444 0 
-25.9906 13.9095 0 
-25.9184 14.5069 0 
-26.2271 14.7105 0 
-26.7658 14.8506 0 
-27.152 15.1217 0 
-27.6907 15.2619 0 
-27.9969 15.133 0 
-28.3026 14.9376 0 
-28.5356 15.2731 0 
-28.7701 15.8081 0 
-29.1583 16.3452 0 
-29.4676 16.6153 0 
-29.3948 17.1462 0 
-28.935 17.2731 0 
-28.7066 17.536 0 
-28.3251 17.8634 0 
-28.4034 18.0639 0 
-28.175 18.3268 0 
-28.025 18.7903 0 
-27.7971 19.1197 0 
-27.2609 19.312 0 
-26.7227 19.2384 0 
-26.2629 19.3652 0 
-25.8788 19.3601 0 
-25.5741 19.6885 0 
-25.2689 19.9504 0 
-25.3493 20.4169 0 
-25.6586 20.687 0 
-25.5843 21.0184 0 
-25.5111 21.4829 0 
-25.591 21.8829 0 
-25.6703 22.2164 0 
-25.0569 22.3412 0 
-24.6733 22.4026 0 
-24.365 22.2655 0 
-23.9047 22.3259 0 
-23.367 22.3187 0 
-23.1381 22.5152 0 
-22.7555 22.7095 0 
-22.3715 22.7044 0 
-21.8338 22.6973 0 
-21.3704 22.3587 0 
-21.0611 22.0886 0 
-20.677 22.0835 0 
-20.3723 22.4119 0 
-19.9898 22.6063 0 
-19.3773 22.8641 0 
-19.3794 23.1301 0 
-18.9963 23.258 0 
-18.4581 23.1843 0 
-18.1534 23.5127 0 
-17.692 23.4401 0 
-17.1533 23.2999 0 
-16.9229 23.2969 0 
-16.5414 23.6243 0 
-16.1563 23.4862 0 
-15.7702 23.2151 0 
-15.3871 23.3429 0 
-14.7726 23.3348 0 
-14.4685 23.7297 0 
-14.2411 24.1256 0 
-13.7802 24.1195 0 
-13.5498 24.1164 0 
-12.9358 24.1747 0 
-12.3991 24.3006 0 
-11.7093 24.4908 0 
-11.3273 24.7517 0 
-10.7906 24.8776 0 
-10.2529 24.8704 0 
-10.0245 25.1333 0 
-9.87756 25.9957 0 
-9.72036 25.5282 0 
-9.65019 26.3917 0 
-9.11505 26.717 0 
-8.73405 27.1109 0 
-8.66031 27.5088 0 
-8.8933 27.8444 0 
-8.89738 28.3763 0 
-9.05407 28.7773 0 
-9.21076 29.1784 0 
-8.90555 29.4403 0 
-8.36787 29.4331 0 
-7.9075 29.4935 0 
-7.52446 29.6214 0 
-7.29708 30.0173 0 
-7.14601 30.3477 0 
-7.14856 30.6802 0 
-6.998 31.0771 0 
-7.07737 31.4106 0 
-7.23457 31.8782 0 
-6.69739 31.9375 0 
-6.31282 31.8659 0 
-5.77666 32.0582 0 
-5.54878 32.3876 0 
-5.63018 32.9871 0 
-5.47809 33.1846 0 
-5.2497 33.4475 0 
-5.17595 33.8455 0 
-5.79147 33.9866 0 
-5.94918 34.5206 0 
-6.10587 34.9217 0 
-5.95378 35.1191 0 
-6.34142 35.5897 0 
-6.72752 35.8608 0 
-7.0358 35.9978 0 
-6.96103 36.2628 0 
-7.0409 36.6628 0 
-6.89034 37.0597 0 
-6.66246 37.3892 0 
-6.43304 37.5191 0 
-5.89535 37.5119 0 
-5.43345 37.3728 0 
-4.97462 37.6327 0 
-4.66941 37.8946 0 
-4.28841 38.2884 0 
-3.98372 38.6168 0 
-3.67749 38.7457 0 
-3.29495 38.9401 0 
-2.67994 38.8655 0 
-2.60466 39.0639 0 
-2.06799 39.1898 0 
-1.45145 38.9156 0 
-1.06789 38.977 0 
-0.841542 39.5059 0 
-0.844607 39.9049 0 
-0.30845 40.0972 0 
0.151406 40.2241 0 
0.614325 39.952 0 
1.15253 39.8783 0 
1.69021 39.8712 0 
2.14803 40.264 0 
2.68623 40.1904 0 
3.37754 40.1812 0 
4.0709 39.906 0 
4.45701 39.6349 0 
4.6137 39.2339 0 
5.07968 38.5628 0 
5.69827 38.0227 0 
5.62809 37.1592 0 
5.86262 36.6242 0 
6.4049 36.0186 0 
7.6385 35.4038 0 
7.48028 36.0043 0 
7.17099 36.2744 0 
7.62829 36.7337 0 
8.47272 36.789 0 
9.39754 36.3777 0 
9.40213 35.7793 0 
9.63564 35.3772 0 
9.25566 34.8504 0 
9.87322 34.4432 0 
10.1083 33.8417 0 
10.88 33.366 0 
11.6496 33.1563 0 
12.4997 32.4801 0 
13.4219 32.4013 0 
14.04 31.9277 0 
14.8081 31.9175 0 
15.2711 31.6454 0 
15.3514 31.1789 0 
16.0453 30.8372 0 
16.5815 31.0295 0 
17.2743 30.8209 0 
16.8943 30.294 0 
17.284 29.5574 0 
17.2113 29.0265 0 
17.9082 28.2858 0 
17.4509 27.8265 0 
17.6091 27.226 0 
18.534 26.8147 0 
18.8438 26.4782 0 
19.3006 27.004 0 
19.8408 26.6644 0 
20.6852 26.7196 0 
20.9879 27.314 0 
21.3674 27.9074 0 
21.9066 27.7007 0 
22.4478 27.2281 0 
22.2988 26.6317 0 
22.7633 26.1601 0 
23.3055 25.5545 0 
24.3799 25.6732 0 
24.6923 25.0041 0 
24.3901 24.3432 0 
24.0096 23.8829 0 
23.243 23.6936 0 
22.2429 23.9064 0 
22.0156 23.5105 0 
21.25 23.1882 0 
20.7169 22.5969 0 
19.9477 22.7401 0 
19.2564 22.7493 0 
18.7915 23.2874 0 
18.0956 23.895 0 
17.1774 23.4418 0 
17.1067 22.6449 0 
16.4993 21.7221 0 
16.3519 20.9262 0 
16.2796 20.3288 0 
15.744 20.0699 0 
15.596 19.3405 0 
14.7505 19.4182 0 
14.2185 18.6939 0 
13.3735 18.7052 0 
12.9946 18.0453 0 
13.2306 17.3108 0 
13.3878 16.8433 0 
14.3879 16.6305 0 
15.3107 16.4853 0 
15.6225 15.8827 0 
15.3209 15.1553 0 
15.2487 14.5579 0 
14.7868 14.697 0 
13.9459 14.1763 0 
13.4902 13.5175 0 
13.2638 12.9885 0 
13.3452 12.3891 0 
12.9663 11.7292 0 
12.5868 11.1358 0 
11.9728 11.0775 0 
10.9748 11.0243 0 
9.97823 10.7716 0 
9.59723 10.3777 0 
8.98426 10.1864 0 
8.44351 10.5925 0 
7.83411 9.93575 0 
7.06701 9.81297 0 
6.30143 9.49071 0 
5.69153 8.90041 0 
5.46364 8.571 0 
5.9286 8.0329 0 
6.00899 7.5664 0 
5.3187 7.4426 0 
4.78407 7.05078 0 
4.78969 6.31932 0 
4.56385 5.72392 0 
3.6421 5.73618 0 
3.41574 5.20727 0 
3.72555 4.8707 0 
4.03893 4.06866 0 
4.19715 3.46816 0 
4.89051 3.19298 0 
5.738 2.84926 0 
6.35506 2.50861 0 
6.3617 1.64416 0 
6.44464 0.845184 0 
5.75588 0.521896 0 
5.76098 -0.143065 0 
5.38101 -0.669927 0 
5.07682 -1.06482 0 
5.15925 -1.7973 0 
4.85455 -2.12569 0 
4.32095 -2.65051 0 
4.40134 -3.11701 0 
4.40338 -3.38299 0 
4.25333 -3.84642 0 
4.48734 -4.31496 0 
4.87141 -4.32007 0 
4.95179 -4.78656 0 
5.33892 -5.19064 0 
5.42033 -5.79013 0 
5.11615 -6.18502 0 
4.65884 -6.64437 0 
4.20001 -6.90422 0 
3.3566 -7.09247 0 
2.8184 -7.01883 0 
2.2039 -7.01066 0 
1.89563 -6.87358 0 
1.51054 -6.73548 0 
1.20431 -6.86439 0 
0.668155 -7.05672 0 
0.359372 -6.85315 0 
0.0510995 -6.71607 0 
-0.256152 -6.71199 0 
-0.334496 -6.51148 0 
-0.871164 -6.63732 0 
-1.25267 -6.96469 0 
-1.63827 -6.7601 0 
-1.48822 -6.29667 0 
-1.7207 -6.02762 0 
-2.25839 -6.02047 0 
-2.79353 -6.3458 0 
-3.32815 -6.73762 0 
-3.79005 -6.5985 0 
-4.40302 -6.78982 0 
-4.70976 -6.85223 0 
-5.01956 -6.51566 0 
-5.63356 -6.57399 0 
-5.93825 -6.90238 0 
-6.4739 -7.16122 0 
-7.08687 -7.35254 0 
-7.69933 -7.61035 0 
-8.46643 -7.73313 0 
-8.84692 -8.19349 0 
-0 0 0 
-9.8081 -8.04773 0 
7.0217 35.7112 0 
8.93513 36.5833 0 
12.0746 32.8182 0 
17.5598 28.6562 0 
18.0716 27.0204 0 
23.8427 25.6138 0 
22.743 23.8 0 
17.6365 23.6684 0 
16.803 22.1835 0 
13.8879 16.7369 0 
10.4765 10.898 0 
5.28487 8.94136 0 
3.11779 5.64767 0 
-11.8817 24.0214 0 
-9.88075 24.7803 0 
-19.4326 5.1168 0 
-7.11766 29.6741 0 
-5.3705 32.0269 0 
-17.078 23.0542 0 
-21.0122 11.0072 0 
7.09908 35.0387 0 
-18.3434 2.76391 0 
-4.88373 33.5998 0 
-20.7 9.97839 0 
10.1464 33.0897 0 
6.38702 10.2869 0 
5.69431 35.958 0 
-1.20651 38.6141 0 
17.0581 27.4019 0 
2.92694 5.17369 0 
2.60204 5.59562 0 
12.8815 16.9657 0 
-20.6935 6.9805 0 
-25.1931 19.5629 0 
2.40202 5.12454 0 
2.07543 5.54806 0 
1.87168 5.07619 0 
1.56518 5.5099 0 
1.36643 5.03153 0 
1.06389 5.45563 0 
0.869406 4.98637 0 
0.570198 5.38096 0 
0.753987 5.85981 0 
0.293421 5.79487 0 
0.458452 6.23354 0 
0.000170208 6.18566 0 
0.16657 6.62237 0 
-0.324139 6.55289 0 
-0.133262 7.01147 0 
-0.62852 6.95253 0 
-0.432669 7.4069 0 
-0.92686 7.34732 0 
-0.734484 7.8028 0 
-1.22433 7.73753 0 
-1.4138 7.28977 0 
-1.70576 7.67416 0 
-1.03434 8.19369 0 
-1.89237 7.23356 0 
-2.17979 7.61227 0 
-2.36388 7.17583 0 
-2.64773 7.53695 0 
-2.83466 7.13854 0 
-3.1143 7.47549 0 
-3.29902 7.07127 0 
-3.57933 7.42757 0 
-3.7617 7.0244 0 
-4.04047 7.37051 0 
-3.85819 7.794 0 
-4.31639 7.73469 0 
-4.1372 8.15772 0 
-4.59208 8.07981 0 
-4.41639 8.51223 0 
-4.92202 8.42987 0 
-4.69195 8.87441 0 
-5.13956 8.81957 0 
-4.95483 9.23395 0 
-5.40772 9.17582 0 
-5.21818 9.60004 0 
-5.67396 9.53185 0 
-5.48614 9.95431 0 
-5.94105 9.88511 0 
-5.77325 10.2939 0 
-6.21222 10.2335 0 
-6.02351 10.6693 0 
-6.47516 10.588 0 
-6.29245 11.0092 0 
-6.73991 10.9347 0 
-6.9105 10.5299 0 
-7.174 10.8748 0 
-7.34198 10.4748 0 
-7.60367 10.8177 0 
-7.76989 10.4206 0 
-8.03056 10.762 0 
-8.19543 10.3676 0 
-6.57299 11.339 0 
-8.45199 10.6919 0 
-6.12379 11.4253 0 
-8.61922 10.3141 0 
-6.40535 11.7495 0 
-4.2158 6.94667 0 
-8.87565 10.6319 0 
-9.03817 10.2602 0 
-9.29605 10.592 0 
-9.4561 10.2108 0 
-9.70891 10.5447 0 
-9.5512 10.9298 0 
-5.96518 11.8135 0 
-6.23909 12.1576 0 
-5.79003 12.2174 0 
-6.06615 12.5778 0 
-5.61267 12.6358 0 
-9.8687 10.1599 0 
-9.96471 10.8783 0 
-9.80685 11.2642 0 
-5.89099 13.0004 0 
-5.44644 13.0499 0 
-10.2213 11.2125 0 
-10.0623 11.599 0 
-10.4768 11.5465 0 
-5.71817 13.4377 0 
-5.19584 13.467 0 
-10.3182 11.9334 0 
-10.7331 11.8808 0 
-5.53542 13.8774 0 
-5.07275 13.9185 0 
-10.5716 12.2699 0 
-10.9888 12.2147 0 
-11.1491 11.8274 0 
-11.3834 12.1511 0 
-11.5526 11.769 0 
-11.2414 12.5463 0 
-11.7029 12.4372 0 
-5.36333 14.3051 0 
-4.88968 14.356 0 
-3.90849 6.58165 0 
-4.38881 6.53098 0 
-4.13962 6.18364 0 
-4.56358 6.12829 0 
-4.30262 5.78452 0 
-4.69548 5.72412 0 
-4.46501 5.40213 0 
-4.85578 5.34566 0 
-4.62985 5.04647 0 
-5.00017 4.98145 0 
-4.74113 4.65222 0 
-5.15032 4.62564 0 
-4.94186 4.33006 0 
-5.30196 4.2843 0 
-5.08963 3.99485 0 
-5.44877 3.95087 0 
-5.23437 3.66406 0 
-5.58787 3.62217 0 
-5.37369 3.34127 0 
-5.72629 3.29629 0 
-5.17671 14.7305 0 
-4.70466 14.7925 0 
-4.75927 4.03135 0 
-4.99426 15.1719 0 
-4.51938 15.2333 0 
-5.94261 3.57789 0 
-6.08077 3.2481 0 
-6.30274 3.55015 0 
-6.43924 3.20104 0 
-6.66366 3.50682 0 
-6.80073 3.15289 0 
-7.0269 3.46173 0 
-7.16568 3.1094 0 
-7.39248 3.41565 0 
-7.53193 3.0605 0 
-7.75818 3.34984 0 
-7.89875 2.99992 0 
-8.12652 3.29563 0 
-11.5079 12.8686 0 
-11.9492 12.8133 0 
-4.81084 15.6153 0 
-4.33304 15.677 0 
-5.51389 3.01678 0 
-8.26974 2.95013 0 
-8.48042 3.25835 0 
-4.62632 16.0614 0 
-4.14557 16.1234 0 
12.6386 18.7221 0 
-8.04063 2.65267 0 
-8.41455 2.60317 0 
-4.41855 16.5007 0 
-3.95332 16.571 0 
-11.7598 13.2101 0 
-12.1847 13.1562 0 
-4.22063 16.9529 0 
-3.76119 17.0227 0 
-4.04187 17.4127 0 
-3.57159 17.478 0 
-3.86517 17.8696 0 
-3.38211 17.9352 0 
-3.66342 18.3258 0 
-3.18799 18.394 0 
-4.91975 16.4745 0 
-8.18347 2.30319 0 
-8.56042 2.25342 0 
-3.85027 15.7359 0 
-3.51387 18.8037 0 
-3.00433 18.8594 0 
-12.0136 13.5476 0 
-12.4399 13.4933 0 
-3.35109 19.2808 0 
-2.82045 19.3272 0 
-3.13273 19.7312 0 
-2.61964 19.789 0 
-2.92261 20.1868 0 
-2.41611 20.2508 0 
-2.1189 19.8318 0 
-1.91078 20.3185 0 
-2.2219 20.7263 0 
-1.7107 20.7985 0 
-1.39657 20.3823 0 
-1.19118 20.8723 0 
-0.869568 20.4475 0 
-0.663131 20.9475 0 
-0.993149 21.3613 0 
-0.461513 21.4443 0 
-0.793644 21.8604 0 
-0.268924 21.9457 0 
-0.598475 22.3679 0 
-0.070275 22.4464 0 
-0.399257 22.8688 0 
0.132201 22.9454 0 
-8.32762 1.9499 0 
-8.70872 1.90062 0 
-0.191724 23.3659 0 
0.334878 23.4447 0 
-0.33129 20.5227 0 
-12.2762 13.8868 0 
-12.6983 13.8297 0 
-12.8601 13.4383 0 
-13.1166 13.7714 0 
-13.2764 13.3838 0 
-13.5317 13.7142 0 
0.00917349 23.8662 0 
0.542677 23.9425 0 
-8.47379 1.5954 0 
-8.85867 1.54453 0 
-13.6908 13.3281 0 
-13.9451 13.6563 0 
0.211233 24.3637 0 
0.744981 24.4431 0 
0.412954 24.8644 0 
0.946903 24.9446 0 
0.614312 25.368 0 
-8.6198 1.23441 0 
-9.0079 1.18393 0 
-9.24626 1.49523 0 
-13.7882 14.0456 0 
-14.2034 13.9862 0 
1.27986 24.5192 0 
-14.0993 13.2723 0 
1.14947 25.4457 0 
0.816406 25.8698 0 
-9.39715 1.13275 0 
-8.76928 0.872498 0 
-14.0482 14.3787 0 
-14.4625 14.321 0 
-14.3084 14.7118 0 
-14.7222 14.654 0 
-14.5673 15.0428 0 
-14.9831 14.9864 0 
-9.63625 1.44585 0 
-9.78814 1.08161 0 
-3.98908 18.7259 0 
1.35131 25.9471 0 
1.01609 26.3708 0 
1.55316 26.4482 0 
1.21751 26.8724 0 
-14.8267 15.373 0 
-15.2413 15.3169 0 
-10.0282 1.3962 0 
-10.1811 1.03011 0 
-15.0877 15.7153 0 
-15.4983 15.6464 0 
-14.679 15.8 0 
-0.755332 23.2775 0 
1.7549 26.9506 0 
1.41999 27.3755 0 
-3.06216 17.5332 0 
0.433476 22.4647 0 
2.09409 26.5219 0 
0.0671981 25.2643 0 
-15.3518 16.0475 0 
-15.7551 15.975 0 
-15.6019 16.3577 0 
-16.0088 16.2975 0 
-10.4108 1.34124 0 
-10.5708 0.975464 0 
-10.3319 0.65873 0 
-16.1634 15.9155 0 
-16.4161 16.2394 0 
-8.35256 3.5914 0 
-8.70504 3.55646 0 
-11.8482 13.9423 0 
-10.7285 0.604441 0 
-15.1597 14.619 0 
2.29918 27.0319 0 
2.64206 26.5959 0 
-15.855 16.6791 0 
-4.63488 14.0043 0 
-16.5706 15.8594 0 
-16.8218 16.1831 0 
0.883233 27.2909 0 
1.07463 27.7823 0 
-8.57952 3.88912 0 
-8.94882 3.84242 0 
-10.818 1.29606 0 
-16.975 15.805 0 
-17.2245 16.1266 0 
2.85139 27.1153 0 
3.19943 26.6723 0 
-8.37988 0.923439 0 
-8.52337 0.565709 0 
-8.14087 0.613023 0 
-8.28368 0.257099 0 
-7.90948 0.299076 0 
-8.04584 -0.0488411 0 
-7.67648 -0.00921155 0 
-7.81359 -0.356115 0 
-7.44056 -0.310097 0 
-7.57774 -0.656986 0 
-7.20555 -0.612028 0 
-17.3762 15.75 0 
-17.6229 16.0678 0 
-17.4739 16.4444 0 
-17.8713 16.386 0 
-17.7234 16.7598 0 
-18.1195 16.7044 0 
-18.2667 16.3283 0 
-18.5153 16.6491 0 
-17.9699 17.0745 0 
-8.80956 4.18633 0 
-9.18084 4.13941 0 
-18.6671 16.2799 0 
-18.9131 16.5959 0 
0.56307 27.7187 0 
0.741314 28.1941 0 
10.1198 11.275 0 
-5.65614 14.6859 0 
1.16133 4.58963 0 
0.69392 4.5507 0 
-19.0645 16.2235 0 
-19.3111 16.5417 0 
3.41157 27.2014 0 
3.76221 26.7498 0 
-19.463 16.1679 0 
-19.7103 16.4871 0 
0.963954 4.19229 0 
0.539863 4.14513 0 
-9.0384 4.48565 0 
-9.41133 4.43723 0 
-19.8625 16.1135 0 
-20.1103 16.4323 0 
-20.2632 16.058 0 
-19.5556 22.4313 0 
-7.353 -0.96859 0 
-7.79467 -1.00325 0 
-6.97104 -0.917875 0 
0.243067 28.1309 0 
0.428758 28.6076 0 
-17.2913 -0.824036 0 
0.771818 3.82197 0 
0.395981 3.77454 0 
-0.544888 8.25956 0 
-0.847283 8.65031 0 
-0.347813 8.7116 0 
-0.658958 9.10747 0 
-0.151474 9.16831 0 
-0.468864 9.59376 0 
0.0347975 9.63738 0 
-20.5109 16.3774 0 
-20.6639 16.0034 0 
-0.280198 10.0912 0 
3.97913 27.2866 0 
4.33638 26.8246 0 
0.604743 3.47955 0 
0.261472 3.43509 0 
-17.8249 -2.47073 0 
-8.38857 9.98074 0 
-9.26834 4.78424 0 
-9.64123 4.73641 0 
-7.51083 -1.33042 0 
-7.89396 -1.38256 0 
-20.9119 16.3225 0 
-21.0643 15.9489 0 
-19.6134 15.793 0 
-20.7473 16.6838 0 
0.456739 3.16233 0 
0.127585 3.11957 0 
-0.0703279 3.38461 0 
-0.197267 3.0826 0 
-0.0704532 28.5348 0 
0.116988 29.0057 0 
0.615128 29.0828 0 
0.301487 29.4902 0 
0.802721 29.5534 0 
0.483852 29.9743 0 
0.991783 30.0309 0 
0.671037 30.4403 0 
-0.392233 3.3334 0 
-0.511514 3.03718 0 
-25.8963 14.8763 0 
-4.59521 37.4993 0 
4.55431 27.3678 0 
4.91866 26.9064 0 
4.69561 26.3561 0 
5.2858 26.4386 0 
5.05945 25.8825 0 
5.65853 25.9673 0 
5.42938 25.4022 0 
6.03688 25.4893 0 
5.80374 24.9159 0 
6.41754 25.0006 0 
6.18239 24.4251 0 
6.65167 25.5795 0 
7.03773 25.0859 0 
7.27462 25.6585 0 
7.66273 25.1704 0 
7.90039 25.744 0 
8.28816 25.2604 0 
8.52089 25.8411 0 
8.9075 25.3508 0 
0.317181 2.86861 0 
-21.3109 16.2672 0 
-9.49769 5.08334 0 
-9.86986 5.03535 0 
-9.12134 5.13394 0 
-7.65616 -1.69284 0 
-25.5859 14.6724 0 
-25.5641 15.0439 0 
-8.05614 -1.75603 0 
1.18078 30.5038 0 
0.860497 30.9072 0 
-0.706285 3.28492 0 
-0.817452 2.99478 0 
-0.628508 2.75752 0 
-0.918625 2.71519 0 
-0.744539 2.4974 0 
-1.01411 2.45626 0 
-0.856264 2.25111 0 
-1.1115 2.21214 0 
-1.2724 2.4118 0 
-1.35994 2.1715 0 
-1.20366 1.97835 0 
-1.44231 1.94041 0 
-1.29012 1.755 0 
-1.5203 1.71515 0 
-1.37276 1.53895 0 
-1.59658 1.49808 0 
-1.45374 1.32882 0 
-1.67094 1.28971 0 
-1.5331 1.12301 0 
-1.7441 1.08512 0 
-1.60793 0.923601 0 
-1.81681 0.885563 0 
-1.6797 0.727436 0 
-1.88884 0.687385 0 
-1.75225 0.528201 0 
-1.96003 0.488624 0 
-1.78565 0.30663 0 
-2.02564 0.286533 0 
-1.88948 0.118504 0 
-2.10347 0.0894256 0 
-1.96892 -0.0756476 0 
-2.18088 -0.110632 0 
-2.04001 -0.278711 0 
-2.25908 -0.315749 0 
-2.11347 -0.489613 0 
-2.33617 -0.531555 0 
-2.18644 -0.712676 0 
-2.41995 -0.751786 0 
-2.48072 -0.36514 0 
-2.26439 -0.940201 0 
-2.51134 -0.978298 0 
-2.34982 -1.16813 0 
-2.59939 -1.2155 0 
-2.10677 -1.12724 0 
-2.18953 -1.35342 0 
-1.95326 -1.30847 0 
-2.10222 0.64537 0 
-1.81695 1.46571 0 
-2.02927 -1.53358 0 
-1.7975 -1.48864 0 
-1.87442 -1.71462 0 
-1.63874 -1.66645 0 
-1.71769 -1.89742 0 
-1.47762 -1.84744 0 
-1.95663 -1.94382 0 
-1.55897 -2.08456 0 
-1.30733 -2.03422 0 
-1.15192 1.57956 0 
-1.39558 -2.2776 0 
-1.13314 -2.22554 0 
-1.83131 -0.235849 0 
-0.380773 28.9337 0 
-1.22564 -2.47747 0 
-0.958235 -2.42583 0 
-0.870328 -2.17162 0 
-0.695873 -2.37133 0 
-0.608596 -2.13043 0 
-0.434143 -2.31975 0 
-0.517503 -2.57916 0 
-0.346037 -2.079 0 
-0.170489 -2.26811 0 
-0.0869174 -2.01473 0 
0.0953016 -2.21442 0 
0.173143 -1.9575 0 
-1.5277 2.36873 0 
0.353765 30.841 0 
0.539402 31.301 0 
1.40855 39.4008 0 
-9.72525 5.37977 0 
-10.0976 5.32742 0 
-10.2422 4.98614 0 
-10.4713 5.28381 0 
-10.6135 4.93918 0 
-10.8415 5.23371 0 
-10.9824 4.89091 0 
-11.2096 5.18381 0 
-11.3485 4.84325 0 
-11.5752 5.13392 0 
-11.7123 4.7953 0 
-11.9365 5.08381 0 
-12.0746 4.74664 0 
-12.2951 5.03536 0 
-12.1585 5.36913 0 
-12.5146 5.32193 0 
-12.3777 5.65366 0 
-12.7332 5.60679 0 
-12.596 5.93817 0 
-12.951 5.8902 0 
-13.0866 5.56128 0 
-13.304 5.84308 0 
-13.1681 6.17104 0 
-13.5196 6.12453 0 
-13.4387 5.51668 0 
-13.3856 6.45086 0 
-13.7347 6.40322 0 
-13.6013 6.72978 0 
-13.9493 6.68229 0 
-13.8162 7.00776 0 
-14.1634 6.95976 0 
-14.295 6.63746 0 
-14.5069 6.91336 0 
-14.3754 7.23253 0 
-14.7174 7.18617 0 
-14.6374 6.59487 0 
-14.5876 7.5039 0 
-14.9267 7.4575 0 
-14.7974 7.77489 0 
-15.1361 7.72852 0 
-15.007 8.04564 0 
-15.3454 7.99809 0 
-15.4727 7.68403 0 
-15.681 7.9516 0 
-15.5534 8.2641 0 
-15.8875 8.21815 0 
-15.7616 8.52898 0 
-16.0942 8.48236 0 
-15.9684 8.79328 0 
-16.3005 8.74677 0 
-16.1767 9.0587 0 
-16.4178 8.4404 0 
-15.8412 9.1058 0 
-16.0506 9.37214 0 
-16.3862 9.32425 0 
-16.2606 9.63838 0 
-16.5952 9.58902 0 
-16.4561 9.91748 0 
-14.666 8.0934 0 
-16.8026 9.85695 0 
-16.6633 10.1858 0 
-15.7106 9.40749 0 
-13.4521 7.05488 0 
-17.0012 10.1327 0 
-16.8856 10.4401 0 
-17.1645 9.83229 0 
-5.01189 6.04215 0 
-8.63263 26.6234 0 
-17.2195 10.3917 0 
-17.0995 10.7029 0 
-7.81593 -2.07175 0 
0.0445548 31.2266 0 
0.224207 31.6863 0 
-5.61674 8.71098 0 
-10.314 5.59725 0 
1.37248 30.9844 0 
-25.2518 14.8385 0 
-25.2295 15.2133 0 
-8.22319 -2.14002 0 
9.1393 25.9319 0 
9.52502 25.4519 0 
8.68906 24.7823 0 
0.363938 -2.15721 0 
0.446269 -1.89806 0 
-6.825 -0.562337 0 
-6.5902 -0.865868 0 
-6.44579 -0.513108 0 
8.14902 26.3218 0 
-0.563229 28.4425 0 
-0.87109 28.8571 0 
-1.05271 28.3741 0 